         Total SCF energy =   -394.492509242907
@ Step       Energy      Delta E   Gmax     Grms     Xrms     Xmax   Walltime
@ ---- ---------------- -------- -------- -------- -------- -------- --------
@    0    -394.49250924  0.0D+00  0.03594  0.00698  0.00000  0.00000      5.7
         Total SCF energy =   -394.500113517788
         Total SCF energy =   -394.500291894858
@    1    -394.50029189 -7.8D-03  0.00284  0.00074  0.12564  0.38046     14.0
         Total SCF energy =   -394.501141462176
         Total SCF energy =   -394.501582787181
@    2    -394.50158279 -1.3D-03  0.00391  0.00107  0.15830  0.44236     22.0
         Total SCF energy =   -394.502202031002
         Total SCF energy =   -394.502216973765
@    3    -394.50221697 -6.3D-04  0.00120  0.00031  0.04464  0.12495     30.2
         Total SCF energy =   -394.502403021635
         Total SCF energy =   -394.502448637918
@    4    -394.50244864 -2.3D-04  0.00112  0.00029  0.07105  0.31152     37.9
         Total SCF energy =   -394.502505316628
         Total SCF energy =   -394.502505316628
@    5    -394.50250532 -5.7D-05  0.00034  0.00006  0.02186  0.06970     43.1
         Total SCF energy =   -394.502506806447
         Total SCF energy =   -394.502507265153
@    6    -394.50250727 -1.9D-06  0.00018  0.00004  0.00233  0.00994     49.9
         Total SCF energy =   -394.502507711666

 Vector   30  Occ=0.000000D+00  E= 2.512920D-01

 Vector   31  Occ=0.000000D+00  E= 2.603226D-01

 Vector   32  Occ=0.000000D+00  E= 2.880682D-01

 Vector   33  Occ=0.000000D+00  E= 3.035894D-01

 Vector   34  Occ=0.000000D+00  E= 3.347419D-01

 Vector   35  Occ=0.000000D+00  E= 3.566339D-01

 Vector   36  Occ=0.000000D+00  E= 3.794462D-01

 Vector   37  Occ=0.000000D+00  E= 4.338257D-01

 Vector   38  Occ=0.000000D+00  E= 4.481236D-01

 Vector   39  Occ=0.000000D+00  E= 4.733812D-01

 Vector   40  Occ=0.000000D+00  E= 4.758072D-01

 Vector   41  Occ=0.000000D+00  E= 5.658832D-01

         Total SCF energy =   -394.502507749359

 Vector    8  Occ=2.000000D+00  E=-1.476153D+00

 Vector    9  Occ=2.000000D+00  E=-1.375641D+00

 Vector   10  Occ=2.000000D+00  E=-1.350860D+00

 Vector   11  Occ=2.000000D+00  E=-1.203407D+00

 Vector   12  Occ=2.000000D+00  E=-1.012712D+00

 Vector   13  Occ=2.000000D+00  E=-9.084965D-01

 Vector   14  Occ=2.000000D+00  E=-7.990615D-01

 Vector   15  Occ=2.000000D+00  E=-7.348984D-01

 Vector   16  Occ=2.000000D+00  E=-6.893941D-01

 Vector   17  Occ=2.000000D+00  E=-6.883713D-01

 Vector   18  Occ=2.000000D+00  E=-6.505451D-01

 Vector   19  Occ=2.000000D+00  E=-6.449901D-01

 Vector   20  Occ=2.000000D+00  E=-6.123463D-01

 Vector   21  Occ=2.000000D+00  E=-5.787227D-01

 Vector   22  Occ=2.000000D+00  E=-5.683973D-01

 Vector   23  Occ=2.000000D+00  E=-5.480221D-01

 Vector   24  Occ=2.000000D+00  E=-4.922148D-01

 Vector   25  Occ=2.000000D+00  E=-4.731978D-01

 Vector   26  Occ=2.000000D+00  E=-4.539362D-01

 Vector   27  Occ=2.000000D+00  E=-4.422706D-01

 Vector   28  Occ=2.000000D+00  E=-3.884556D-01

 Vector   29  Occ=0.000000D+00  E= 1.777547D-01

 Vector   30  Occ=0.000000D+00  E= 2.512886D-01

 Vector   31  Occ=0.000000D+00  E= 2.603260D-01

 Vector   32  Occ=0.000000D+00  E= 2.880825D-01

 Vector   33  Occ=0.000000D+00  E= 3.035966D-01

 Vector   34  Occ=0.000000D+00  E= 3.347500D-01

 Vector   35  Occ=0.000000D+00  E= 3.566436D-01

 Vector   36  Occ=0.000000D+00  E= 3.794532D-01

 Vector   37  Occ=0.000000D+00  E= 4.338464D-01

 Vector   38  Occ=0.000000D+00  E= 4.481220D-01

 Vector   39  Occ=0.000000D+00  E= 4.733723D-01

 Vector   40  Occ=0.000000D+00  E= 4.758327D-01

 Vector   41  Occ=0.000000D+00  E= 5.658556D-01

@    7    -394.50250775 -4.8D-07  0.00006  0.00001  0.00102  0.00423     56.5
         Total SCF energy =   -394.502507787830

 Vector    8  Occ=2.000000D+00  E=-1.476140D+00

 Vector    9  Occ=2.000000D+00  E=-1.375618D+00

 Vector   10  Occ=2.000000D+00  E=-1.350848D+00

 Vector   11  Occ=2.000000D+00  E=-1.203434D+00

 Vector   12  Occ=2.000000D+00  E=-1.012703D+00

 Vector   13  Occ=2.000000D+00  E=-9.084992D-01

 Vector   14  Occ=2.000000D+00  E=-7.990566D-01

 Vector   15  Occ=2.000000D+00  E=-7.348804D-01

 Vector   16  Occ=2.000000D+00  E=-6.893936D-01

 Vector   17  Occ=2.000000D+00  E=-6.883879D-01

 Vector   18  Occ=2.000000D+00  E=-6.505291D-01

 Vector   19  Occ=2.000000D+00  E=-6.449783D-01

 Vector   20  Occ=2.000000D+00  E=-6.123582D-01

 Vector   21  Occ=2.000000D+00  E=-5.787232D-01

 Vector   22  Occ=2.000000D+00  E=-5.683972D-01

 Vector   23  Occ=2.000000D+00  E=-5.480214D-01

 Vector   24  Occ=2.000000D+00  E=-4.921980D-01

 Vector   25  Occ=2.000000D+00  E=-4.731985D-01

 Vector   26  Occ=2.000000D+00  E=-4.539258D-01

 Vector   27  Occ=2.000000D+00  E=-4.422549D-01

 Vector   28  Occ=2.000000D+00  E=-3.884446D-01

 Vector   29  Occ=0.000000D+00  E= 1.777629D-01

 Vector   30  Occ=0.000000D+00  E= 2.512950D-01

 Vector   31  Occ=0.000000D+00  E= 2.603271D-01

 Vector   32  Occ=0.000000D+00  E= 2.880789D-01

 Vector   33  Occ=0.000000D+00  E= 3.035845D-01

 Vector   34  Occ=0.000000D+00  E= 3.347556D-01

 Vector   35  Occ=0.000000D+00  E= 3.566565D-01

 Vector   36  Occ=0.000000D+00  E= 3.794443D-01

 Vector   37  Occ=0.000000D+00  E= 4.338659D-01

 Vector   38  Occ=0.000000D+00  E= 4.481456D-01

 Vector   39  Occ=0.000000D+00  E= 4.733979D-01

 Vector   40  Occ=0.000000D+00  E= 4.758596D-01

 Vector   41  Occ=0.000000D+00  E= 5.658716D-01

       Multipole analysis of the density wrt the origin
       ------------------------------------------------

     L   x y z        total         open         nuclear
     -   - - -        -----         ----         -------
     0   0 0 0     -0.000000      0.000000     56.000000

     1   1 0 0      0.049248      0.000000      1.773808
     1   0 1 0      0.268077      0.000000     -1.068876
     1   0 0 1      1.038742      0.000000     -1.509146

     2   2 0 0    -28.060018      0.000000    283.307626
     2   1 1 0      0.897840      0.000000      0.762436
     2   1 0 1      1.317327      0.000000      0.291830
     2   0 2 0    -33.025459      0.000000    294.025582
     2   0 1 1      0.236426      0.000000      7.132466

         Total SCF energy =   -394.502507787830
@    8    -394.50250779 -3.8D-08  0.00001  0.00000  0.00034  0.00095     61.2
@    8    -394.50250779 -3.8D-08  0.00001  0.00000  0.00034  0.00095     61.2

 Output coordinates in angstroms (scale by  1.889725989 to convert to a.u.)

  No.       Tag          Charge          X              Y              Z
 ---- ---------------- ---------- -------------- -------------- --------------
    1 O                    8.0000     0.95306195    -1.78863029    -0.44809746
    2 O                    8.0000     1.56141103     0.67013171     0.68367917
    3 O                    8.0000     0.26058702     1.67263607    -0.85330688
    4 N                    7.0000    -2.00591923     0.31717062     0.20332003
    5 C                    6.0000    -0.64943408    -0.13105344     0.47888858
    6 C                    6.0000    -0.43273235    -1.46549475    -0.27084193
    7 C                    6.0000     0.39613419     0.84653196     0.00799805
    8 H                    1.0000    -0.51435195    -0.27873834     1.53996312
    9 H                    1.0000    -0.97936736    -2.24183674     0.24773903
   10 H                    1.0000    -0.83965248    -1.36181384    -1.26340005
   11 H                    1.0000    -2.09841582     0.70116325    -0.72121516
   12 H                    1.0000    -2.38519823     0.93677934     0.89508940
   13 H                    1.0000     1.44105802    -1.70941843     0.38150357
   14 H                    1.0000     2.27173483     1.23504325     0.34400715

 Total times  cpu:       60.5s     wall:       61.3s
